LAMMPS data file via write_data, version 27 Oct 2021, timestep = 22588

5202 atoms
8 atom types

-9.525696487171942 9.525696487171942 xlo xhi
-9.525696487171942 9.525696487171942 ylo yhi
-9.525696487171942 9.525696487171942 zlo zhi

Masses

1 1
2 1
3 1
4 1
5 1
6 1
7 1
8 1

PairIJ Coeffs # lj/cut/coul/long

1 1 1 1 2.5
1 2 1 1 2.5
1 3 1 1 2.5
1 4 1 1 2.5
1 5 1 1 2.5
1 6 1 1 2.5
1 7 1 1 2.5
1 8 1 1 2.5
2 2 1 1 2.5
2 3 1 1 2.5
2 4 1 1 2.5
2 5 1 1 2.5
2 6 1 1 2.5
2 7 1 1 2.5
2 8 1 1 2.5
3 3 1 1 2.5
3 4 1 1 2.5
3 5 1 1 2.5
3 6 1 1 2.5
3 7 1 1 2.5
3 8 1 1 2.5
4 4 0 0 2.5
4 5 0 0 2.5
4 6 1 1 2.5
4 7 1 1 2.5
4 8 1 1 2.5
5 5 0 0 2.5
5 6 1 1 2.5
5 7 1 1 2.5
5 8 1 1 2.5
6 6 1 1 2.5
6 7 1 1 2.5
6 8 1 1 2.5
7 7 1 1 2.5
7 8 1 1 2.5
8 8 1 1 2.5

Atoms # charge

2004 1 0 -7.921905758956273 -7.987529265862258 -8.482976247490067 3 -3 2
4089 1 0 -0.3424211995916835 -1.3006706808458404 -7.186246768833238 3 0 2
3455 1 0 -8.38917586798636 -8.902502632297441 -9.395112034956659 4 4 0
4224 1 0 -9.36670582484495 -0.9992235016681814 -2.2141084330540215 -8 -3 -1
1808 1 0 -8.555379155726305 -3.956530642584343 -0.707103909418441 -4 -4 -5
2358 1 0 -5.119320313722434 -7.777001470452931 -8.434679235148693 -7 6 3
4997 1 0 -6.866058758048386 -7.490530651441343 -8.378323518641503 7 1 5
411 1 0 -5.67385327258194 -7.762653131511811 -7.5889288137801785 -3 -5 0
3078 1 0 -6.840382391775733 -8.536529862475614 -8.5334265050475 -1 1 3
3164 1 0 -4.965863563278832 -8.357283579597954 -6.730373939525282 4 -1 4
2118 1 0 -0.11945016038048095 -0.6187928511255354 -2.0131618775144844 -6 -10 1
3640 1 0 -8.787936851644659 -4.032778616262038 -5.713192794007275 -6 2 -4
1721 1 0 -1.8193494284072642 -0.4454342565323621 -0.09116835287984415 3 1 7
2059 1 0 -4.397504603285153 -8.816697393890466 -9.291623519284745 -7 2 0
1427 1 0 -8.958805244072087 -5.700038330601349 -9.408338787256662 5 -2 2
382 1 0 -4.256539562204543 -7.678881211593457 -9.359523743684289 -1 -3 -5
3709 1 0 -2.480887452390367 -7.998044585773612 -9.300205874530764 0 1 -1
999 1 0 -7.264236976889961 -8.925488984936491 -4.402497802430104 1 5 -3
4802 1 0 -0.9779756973140827 -0.4603989017725727 -1.2207749738663427 9 0 2
3442 1 0 -2.7400753521512913 -9.05876275317354 -8.232414948126783 -1 -8 3
3374 1 0 -9.43170504702059 -1.4536356164556903 -7.4323272992579135 -1 -11 2
1504 1 0 -6.9762986459069545 -0.7274865335620699 -0.4247809197418029 -2 -2 1
1212 1 0 -6.020480468045077 -0.2894277495533224 -7.589821752236795 -5 4 2
2671 1 0 -0.28729889417213883 -4.075086462127454 -0.7201911559065817 0 -9 -2
692 1 0 -1.661522279763851 -8.483183862090138 -8.473212566236171 2 -2 1
808 1 0 -0.2329598312873351 -8.57391575417771 -8.908581032160637 3 -2 6
2410 1 0 -8.558844514836649 -1.6552517181788486 -6.384951258588451 4 -3 -3
4158 1 0 -7.58113645427436 -5.512147536442144 -7.961440838618644 1 8 2
2607 1 0 -2.0162333070374183 -9.208348722450292 -5.695079365870436 7 -6 -4
4004 1 0 -7.002535064884174 -5.920785773036721 -8.682751384327348 -1 4 3
349 1 0 -8.873417206190766 -6.374569175076228 -8.447084529866892 0 1 7
1922 1 0 -2.866442683772272 -5.073452723282279 -0.22839331854101808 8 2 0
1582 1 0 -6.835076078321851 -6.606253307837211 -7.9092429342319654 5 4 -1
2950 1 0 -0.019939646557341817 -0.9224630479632481 -2.9816699053923212 -1 -2 4
2277 1 0 -3.30944032053797 -1.2142603304860362 -0.5524465864850701 -4 -10 6
2305 1 0 -6.054404706565005 -6.874640903234434 -9.23583964242618 -4 -2 -2
3505 1 0 -0.07931615496472233 -0.2500426156007709 -7.360925248764435 4 -3 -4
892 1 0 -5.0064529711970644 -5.837004900216649 -8.09908275759463 -3 5 8
3838 1 0 -4.876170012790256 -5.916763397963782 -9.235167825179287 -10 0 -1
2378 1 0 -4.970042562233753 -6.813558879329278 -8.785054275531678 -6 6 -3
1676 1 0 -3.983323834304305 -6.2095119918183705 -8.19433100611605 -4 -1 0
4455 1 0 -3.1573346571362135 -5.862043921106386 -8.829645968117935 0 6 9
3294 1 0 -0.6464049817212469 -9.502544312753066 -8.322089511103357 0 1 1
856 1 0 -9.500646172054505 -6.061693226692047 -2.2253070526112397 -8 2 1
5055 2 1 -7.4389220370419675 -2.72392995883902 -9.140090373261451 4 3 3
2273 1 0 -2.9361936935144017 -7.40119546797983 -8.22857254843791 -6 -5 2
3731 1 0 -6.7995011286062805 -9.02086464034888 -2.0257821247644934 -6 -4 -5
1134 1 0 -3.6792675033040974 -6.916786332215065 -9.030209959938645 -6 13 -4
2634 1 0 -2.8409315090706153 -5.882745061837573 -7.81788147959125 8 2 -1
1337 1 0 -9.302790449952523 -9.517766828215034 -1.4980381214809508 -6 8 -6
3245 1 0 -8.340416393884254 -0.4809975785095695 -2.310663049810456 9 -3 -4
1520 1 0 -1.8382385250910565 -7.344122919121363 -8.252421431152284 -1 2 5
384 1 0 -7.412308269913305 -9.154927748083706 -6.37983594531139 6 0 5
4817 1 0 -6.054177266613069 -9.033844481774757 -0.15448585984144003 -8 -2 8
940 1 0 -0.995377429069153 -6.97338120071524 -9.1497079457855 -2 6 5
4711 1 0 -8.086307024886384 -5.917760402423809 -8.817424282629567 3 -1 1
2448 1 0 -7.2431930511969345 -4.948447219253937 -8.912595615076194 -2 6 -1
4913 1 0 -0.18937400687549832 -5.165095855633411 -2.7723471680486336 0 3 0
4589 1 0 -7.06333415367865 -4.03228743179991 -6.648438727047404 0 7 5
4153 1 0 -8.24834754135719 -4.950133689304901 -8.558927456414136 -4 7 2
1086 1 0 -1.2821393875517515 -6.261602316509184 -8.339791513909653 0 -3 2
888 1 0 -8.886438479357594 -3.974815133070556 -8.733553855416897 3 6 4
3626 1 0 -6.645101697083591 -3.777299387136959 -8.700606313320328 4 6 0
4548 1 0 -6.574711282118755 -3.293666442974824 -7.401720674349097 -1 6 7
986 1 0 -6.116034288590281 -5.306789525495334 -8.448661130041428 -3 7 1
3979 1 0 -5.851796314400394 -4.159233680156851 -7.9304301649113995 5 13 -3
3915 1 0 -2.497603559912114 -9.01123537897023 -4.575179128456579 -2 8 -4
1668 1 0 -4.709306311156388 -9.447521893659012 -8.204212527911729 -2 -6 1
4365 1 0 -3.0852215826986518 -4.371513734506782 -8.029643012512002 3 2 -6
1811 1 0 -5.086486345852173 -4.892658637009466 -8.673487875748181 3 4 -2
2122 1 0 -6.576740252128175 -9.50376147706618 -6.895289946942841 1 3 4
935 1 0 -5.6245967311692535 -6.631022019903916 -0.6618341170888034 5 1 -7
4058 1 0 -2.386445440278001 -6.59128128375469 -8.791412965163962 -2 7 -1
528 1 0 -3.990921716792344 -5.146336766358383 -8.795520472027551 3 4 7
3095 1 0 -2.619236146263928 -3.4858426916964538 -9.274174020332385 -6 -8 2
801 1 0 -2.8540737819321897 -4.704260412982749 -8.932046761640313 2 -4 -1
1617 1 0 -6.442464488417972 -7.4371839081835756 -0.5408203907998939 -5 4 0
4924 1 0 -1.4158720273774197 -5.773470892666074 -9.433397697427575 0 6 -4
4897 1 0 -4.582078152632552 -7.821317011377682 -0.14499676606351386 2 -3 2
576 1 0 -1.7080105215886556 -5.2523821669510475 -8.115926461792268 -6 4 7
2146 1 0 -6.289941390338251 -0.23278002939186315 -6.423933280731372 -7 4 1
2560 1 0 -0.3821016444137708 -4.55605085987335 -8.73276418681752 -5 -3 5
2944 1 0 -0.9115933906357565 -4.198405761183029 -7.648634579750869 -3 -6 5
4784 1 0 -8.396796620794564 -2.864340073822124 -8.254353633446334 2 -4 -3
2477 1 0 -9.191649336280113 -2.9898198482259595 -9.102163761505313 8 -6 -3
2645 1 0 -0.24473982434106745 -8.84672802168973 -7.684024080538229 2 -4 -6
3737 1 0 -8.406897144396739 -4.805222690953944 -7.258994344113841 6 -1 1
1909 1 0 -5.729407913905749 -8.995430624454096 -2.069657945313203 6 -4 -3
3011 1 0 -7.797286205591767 -4.087466999052572 -8.392516831403555 5 0 -1
2531 1 0 -7.3738680758971675 -3.143878783084652 -8.106921887629662 -15 6 -9
1423 1 0 -5.786889125368054 -3.1796811307341066 -8.103830544614485 7 2 4
594 1 0 -0.7777469630193217 -8.769484986075877 -5.780071093684768 3 -6 -3
1245 1 0 -6.557838630989465 -1.699363086919825 -8.812067158369727 5 -5 -1
1546 1 0 -1.4059691562204577 -0.32673484226081584 -5.583906795165584 5 -6 4
1230 1 0 -4.157161977992197 -2.7532348604744294 -7.388092211032502 1 4 8
1428 1 0 -4.8184691191279825 -3.8985122571439588 -7.501675992988094 -3 6 4
5094 2 1 -3.55508469476698 -1.5422732640088874 -7.8250913799302015 10 6 9
116 1 0 -4.64830386325304 -1.6448730645882232 -7.286896860170424 -6 4 -1
1981 1 0 -6.4866168400173345 -2.7592731135906448 -8.698898868930302 -4 11 2
2035 1 0 -6.5992460253678065 -2.1291485356699518 -7.826182156411335 -11 0 3
3790 1 0 -3.2081538494164814 -1.40750914601003 -8.7236193173876 -2 -11 6
2285 1 0 -8.945507124589115 -9.492796759623767 -4.686639704743392 3 4 4
4543 1 0 -4.3486953449579415 -1.7377897304083616 -9.041538026715363 4 -1 -2
1505 1 0 -3.1932429332448127 -0.4476537164347487 -9.478314218224366 -3 1 1
3315 1 0 -8.811846618400176 -0.2691160618270967 -1.36518353465914 4 -3 -4
228 1 0 -2.412135501049785 -3.6388067912879727 -7.6680850277501165 -4 -8 0
4878 1 0 -0.6843400330140881 -1.0893765073490709 -9.12132628805207 3 5 7
4695 1 0 -2.3271330086688975 -2.758274166288172 -8.324875656628445 6 -1 3
2179 1 0 -1.7385057787202332 -3.94694534388705 -8.627537566050455 2 -3 3
3427 1 0 -7.684433660060216 -2.1192523886250463 -6.158882524531032 -1 -4 -3
1393 1 0 -9.399127734416771 -1.1376706211310932 -8.4550404540582 6 -2 -1
4851 1 0 -7.145123335246934 -0.9943590826688187 -8.118285029651126 -2 -6 0
2215 1 0 -8.644294769691488 -1.9229970931533806 -8.695771028591558 6 5 -6
4910 1 0 -0.13160633235551167 -5.8099634374798095 -8.160949063635824 0 -2 7
2042 1 0 -9.350221903539756 -0.4267148479623568 -7.600096340781466 0 8 5
2833 1 0 -3.066426802781031 -9.075869124948385 -2.4723006118233863 -7 3 -3
3913 1 0 -3.6518996676775597 -0.39527711084100225 -1.1778532105492303 -2 7 -3
3178 1 0 -7.583201679188579 -2.044979538982359 -7.941561180533828 9 0 -1
2774 1 0 -7.2906777427431315 -8.972420911397084 -3.2121692922616543 3 2 7
2609 1 0 -9.474721215914974 -3.976522839601631 -0.32561774717420455 3 3 -6
2407 1 0 -5.568241573181599 -0.8340579955932679 -1.8362473171190485 8 -2 -3
3290 1 0 -2.9270290568351456 -0.6306189750444204 -7.92015151146594 2 -10 0
1713 1 0 -4.854446690275331 -1.1746502040949949 -8.178937664248636 -2 0 -5
1477 1 0 -4.825771654539979 -0.03728334271398026 -8.477788609412451 -4 1 -9
4729 1 0 -3.9790447211475994 -0.8150231891342461 -8.59652792783873 -6 7 -1
475 1 0 -8.80160838865798 -0.5987537508183127 -4.94710085703367 1 -1 1
355 1 0 -2.705560347014253 -2.5942937471957963 -7.379035011197423 -1 0 3
4881 1 0 -5.020701988372839 -8.779883328484386 -0.4176058837369201 2 1 8
951 1 0 -0.5949805360758802 -7.757661935027826 -5.054720537620372 7 5 -1
2516 1 0 -9.09388280804409 -0.4479881821270659 -2.990072538798369 -2 5 1
2086 1 0 -7.476082087542652 -7.780275082509101 -9.419571175149322 -6 -3 -1
2143 1 0 -0.8266353745430717 -0.5589840587153674 -8.268657154200325 0 0 3
2563 1 0 -8.999825362075072 -3.4934832797135726 -7.85286986010685 7 -5 -4
3870 1 0 -2.105508050042248 -0.7466111040821808 -8.505350582613952 -1 1 4
823 1 0 -2.8279689046345 -0.045674232713706076 -3.815625554310321 -8 -1 -7
2799 1 0 -1.4457132285461025 -1.8755230628125927 -8.818239078800778 3 2 4
5069 2 1 -8.59070249088671 -9.01582035084937 -6.5108350279975244 3 -11 1
4180 1 0 -9.225028079910034 -7.821668303962036 -6.523332308917874 2 9 -9
4874 1 0 -7.828535805737498 -6.888913040979153 -8.43374145161831 4 8 0
2226 1 0 -8.763164803576633 -7.151305420399232 -7.592827915537003 -3 2 0
979 1 0 -4.863259199176754 -0.802335733763524 -9.206491528987662 -2 1 5
90 1 0 -7.071134840544265 -8.08338316100288 -5.990898091584384 -1 5 -10
2657 1 0 -6.196564847518449 -8.071800787172071 -6.74149190489034 2 3 -2
4579 1 0 -5.870112703790861 -8.786223048194584 -5.950518121945757 6 2 1
1322 1 0 -4.103759114065776 -8.14148291895819 -6.039870595035155 2 3 3
2860 1 0 -7.764348726708729 -7.726187087464453 -7.525536168274021 2 4 4
2321 1 0 -7.0496386773415995 -8.638932499703985 -7.287145686119954 1 -3 2
556 1 0 -4.001427158440641 -8.72561088155688 -7.820224220680677 6 -3 1
3241 1 0 -6.107583764432742 -8.659719985255341 -7.788159888358062 -11 8 6
3351 1 0 -4.845729420961008 -7.017717358566729 -7.650265697739954 3 4 2
2052 1 0 -0.37874899111324467 -5.117127180623049 -0.3831428583765817 -6 -6 2
4988 1 0 -3.883984082463563 -7.754909040289494 -7.207085296189469 1 -3 5
529 1 0 -2.862438875887279 -8.49441817878966 -5.644037169784172 -3 3 3
467 1 0 -1.788305729201527 -8.28136589814895 -6.621762250618766 4 -1 -5
3301 1 0 -3.517574925894963 -8.525258584254031 -8.81108809494297 1 -2 -5
3271 1 0 -3.2716628914697345 -9.075983219825128 -7.270036821477218 3 5 9
4003 1 0 -1.7580296113298939 -2.615813540888573 -1.3764707820319941 1 -5 3
2989 1 0 -2.3793742937941635 -8.181717401859938 -7.746197029830277 -1 -6 -3
1494 1 0 -1.5216190696062721 -8.428734480331663 -1.3713025105916792 -3 0 -2
4564 1 0 -1.1241860200910914 -7.53540438041233 -5.869863348372452 5 1 4
4129 1 0 -1.513284880741148 -7.468565474489419 -7.099015070566919 3 8 -6
3994 1 0 -0.5435189013990325 -7.944734627704971 -6.721369543994745 -4 -2 -3
3598 1 0 -0.13705653657865824 -9.071976068320179 -6.561868097163904 -9 4 -4
3391 1 0 -8.472166258944211 -5.174081441089273 -5.767305709167736 8 6 -2
74 1 0 -8.976090554328346 -5.688577765758325 -7.420393062548163 0 -1 6
1341 1 0 -7.776707131191726 -6.299299771990538 -7.325951699399314 13 -3 2
1481 1 0 -2.046982696742531 -0.8397925424166406 -2.3493322881891565 7 -3 -5
263 1 0 -9.442703852744293 -2.090165297854358 -4.844413942774919 -4 -8 7
2593 1 0 -6.3184614672320105 -5.885132369219097 -7.354369018830917 -4 -2 -1
5180 3 -1 -8.05310433839942 -8.147356724432841 -6.430407257212375 4 7 0
2415 1 0 -6.664486657383903 -7.440931937185585 -7.274176613784224 0 -3 11
5022 2 1 -6.00216504557318 -6.341049088766525 -5.3213121567419135 -2 5 7
3013 1 0 -6.910285609717878 -6.122211064889836 -6.545162890680477 -5 0 -1
3238 1 0 -5.4782105562149646 -4.957060727857272 -7.455856391143376 8 4 -4
2492 1 0 -5.877560850873111 -6.725908122616434 -8.27254795205107 1 1 -6
3317 1 0 -4.12758708176823 -7.429834332757681 -8.18007236958931 -2 -6 3
3369 1 0 -4.469545423354665 -7.304369360457585 -6.5260317130497985 -8 -1 2
226 1 0 -4.718943231962758 -6.085580446839293 -6.996572521417366 -2 2 7
2190 1 0 -5.0741784221761925 -6.655762754252303 -5.848430660130102 -1 2 -6
4007 1 0 -5.801216283964932 -6.905734217483506 -7.1175921312148 -3 -2 3
910 1 0 -2.704085213206983 -7.30130047618922 -7.214558651706467 -1 -1 3
2788 1 0 -3.9336898670383595 -6.695707064631738 -7.403516302989804 2 -3 -2
1618 1 0 -1.7286352365363022 -6.5130465741413515 -7.368785034512975 -7 1 4
1099 1 0 -2.2474659662517915 -4.627578279415822 -7.112013068601236 -7 -5 -1
96 1 0 -2.2158894767998483 -7.3220785339562 -6.327472817734074 6 -4 4
1903 1 0 -1.4171790327051035 -6.40617925441447 -5.9898766742889515 2 -1 1
2525 1 0 -7.6577992968759885 -0.1256318052422145 -4.48919026810372 -4 3 -5
2851 1 0 -0.7840945668632919 -7.9762341696530825 -7.989292279126499 0 -1 -5
522 1 0 -0.7847636415591861 -6.9082648903667945 -6.746747919799312 -3 -4 1
1877 1 0 -0.5790432743010161 -7.000020605209153 -8.095257788692752 7 -9 3
1889 1 0 -7.681610563383812 -4.983940513418144 -4.883518553121721 0 8 -4
5130 3 -1 -7.012930773425282 -4.718044441354399 -7.9259742539883185 -2 5 0
4534 1 0 -7.960591289092345 -4.311114416656779 -6.328642825809294 3 -5 6
4071 1 0 -7.758002239828964 -5.382702261879329 -6.636642876072022 1 -1 0
3461 1 0 -6.1915498093878085 -5.355393084708496 -4.5733474955714515 -1 0 -2
3729 1 0 -9.119811607525925 -5.978775297939217 -6.266013825301496 -1 3 -4
2484 1 0 -9.038646980946888 -5.615548322563981 -4.779443150824608 5 3 3
4547 1 0 -6.5629242718393375 -5.015881180962134 -6.706793414999916 8 -4 -4
4056 1 0 -5.786201568069522 -6.100938582875633 -6.475469157402663 2 -1 0
4762 1 0 -5.7569426551181815 -5.220928756047935 -6.006966024194748 -8 -5 -1
871 1 0 -5.4201377896549685 -4.229655180468367 -5.920839412946396 1 1 8
1750 1 0 -6.6175765668635895 -4.555667937109349 -5.6133311842930835 1 -2 2
1355 1 0 -3.859890903155244 -5.190824930210604 -6.838481435568392 1 3 -6
4415 1 0 -4.066251313705938 -6.199519960426075 -6.235817338916089 1 1 1
844 1 0 -4.292152888432993 -4.746369166135083 -7.89380823969211 1 0 -3
270 1 0 -3.266402951108378 -4.141037790998339 -6.669612209323722 -1 -6 2
4084 1 0 -3.864792261147029 -3.7923900678405893 -8.364987669152564 -1 -1 -6
3601 1 0 -3.428851641410633 -3.1090982222810064 -6.734561451665215 3 6 -4
2908 1 0 -3.235999085282697 -5.473085155753137 -6.088871346114074 8 0 7
2104 1 0 -1.4663027884648567 -5.079084075014496 -6.346328541019979 -1 1 -1
578 1 0 -7.948312382182542 -8.309631710228574 -0.674192042228043 1 0 7
5176 3 -1 -1.1922871915181013 -5.625321595125824 -7.2498489013887575 -3 -1 -6
243 1 0 -0.11143477753241271 -3.8108326263618375 -6.875838461591584 -2 0 0
4305 1 0 -1.3426409981203005 -3.8949997215679693 -6.338539500413328 4 3 0
557 1 0 -0.6227029170392164 -3.3740590837020674 -5.693798080858638 -4 1 -9
2887 1 0 -7.813575050463876 -3.231490769742689 -6.100725012463592 5 -7 -1
1314 1 0 -7.6958018477381 -4.137263718118145 -5.390342724485299 -4 -7 1
2064 1 0 -7.346187535774527 -2.305162990629314 -5.093850606621678 0 -1 5
1894 1 0 -9.120595421963323 -4.1427306794217795 -6.739450131097559 4 0 -1
85 1 0 -8.541492243694007 -3.1334036306461304 -5.110718641906034 1 -6 -10
2191 1 0 -8.24705782087809 -3.4264370265626587 -7.0711111888274765 2 8 6
420 1 0 -5.703712236683499 -3.5748231481732526 -6.835879777323823 6 6 1
1141 1 0 -7.079321480449153 -2.3169063071002727 -7.02668611671046 -4 4 0
2045 1 0 -6.4035900861138995 -2.9242070088724432 -6.253809059531475 -3 -1 2
199 1 0 -5.205665064680804 -2.678610686862366 -7.330683794131332 -3 -4 -5
4888 1 0 -6.136046347096725 -3.590009447835211 -5.357201576194025 -7 1 -1
4113 1 0 -4.696032671789818 -2.4039178291112613 -6.460108112050634 8 -1 1
2924 1 0 -4.424332364074937 -4.121404495793381 -6.379955497476742 -2 -8 4
991 1 0 -5.580261348399862 -1.9418135169357766 -8.139031649234756 8 11 -3
54 1 0 -3.0470869263797207 -1.9508467438211268 -6.054582990882576 1 3 -9
3612 1 0 -3.7332095734211546 -1.6429260056716064 -6.863153313933889 -3 1 2
3657 1 0 -2.0721799509543404 -1.7744815563572311 -7.994772609126032 -3 -3 4
2150 1 0 -4.484204990781976 -1.307286699512705 -5.998860808774407 -2 -9 3
4973 1 0 -3.495227084322381 -2.721307109659813 -8.527489444079173 2 10 3
1694 1 0 -2.147028866927143 -2.617874003155115 -5.88800849884495 -7 6 2
2353 1 0 -2.0448880142123222 -2.0155419985382412 -6.798879220412443 1 -3 -4
2624 1 0 -0.9999319175155446 -2.615610436564361 -6.181835480301009 3 -4 2
3903 1 0 -2.2780318811896514 -3.475846997489957 -6.662407046505566 -3 8 3
2878 1 0 -5.617254833607106 -2.41822853188847 -9.318873643224808 3 3 10
937 1 0 -0.12536572280827407 -2.072650722680293 -5.37979449931594 4 -5 -3
2714 1 0 -1.2648217076368446 -2.94433943781977 -8.271545017482168 -2 0 4
4050 1 0 -6.400086356882618 -3.3882356344035083 -0.17268434519688114 13 0 -2
2203 1 0 -1.8927749971440422 -5.379761653661132 -0.2780494744023905 1 8 -5
1128 1 0 -8.863209183402304 -2.83128373216283 -6.221245208867223 2 -6 -7
3384 1 0 -8.387356943997943 -0.10817976403812324 -7.454873559382399 -1 -1 0
2613 1 0 -8.556526252451816 -2.1209471062021716 -7.38483558067972 -6 -8 -4
2756 1 0 -8.782471349944231 -0.639804566030632 -6.506692843812733 5 -5 1
2440 1 0 -7.858290514465246 -1.2984742618495275 -7.034923114154978 2 0 -1
3440 1 0 -6.557001807855221 -1.559316583309962 -5.066819369038282 4 0 -6
1838 1 0 -6.764204446520123 -1.857307288583133 -6.177869660026456 -7 -9 -2
714 1 0 -6.732303639410696 -1.3163825733604266 -7.229838451851391 -3 -5 -6
1784 1 0 -7.910764999730331 -1.3081981854055194 -5.434439203297196 -4 5 -2
2883 1 0 -7.1966209874405145 -0.8906563502973732 -6.112474127638958 -8 -9 3
3653 1 0 -5.7634956935894515 -0.8097569194290077 -8.606710589499865 -4 0 5
1949 1 0 -9.484894455970057 -2.2692327389199187 -8.17609767610904 10 -7 2
1030 1 0 -5.5944230434166915 -1.2110643342803815 -7.284926139871917 -4 -2 0
978 1 0 -7.312850024887281 -0.6021210516100783 -9.420290258837484 -3 1 -1
3521 1 0 -1.1247819199063134 -1.4587522969436222 -6.241041000820709 4 -2 -3
1380 1 0 -3.3206816809353334 -0.8601376341626299 -6.2003099985590815 0 -4 -3
5163 3 -1 -3.8937073833794615 -0.5010909802343146 -7.546201715770245 -1 -3 1
41 1 0 -2.790088315390115 -1.2222366017227166 -6.975935973950674 -3 -1 -2
454 1 0 -0.9822857788044086 -2.0786076871140304 -7.282822343969954 4 -1 2
741 1 0 -1.3734625037112114 -1.0737676432184795 -7.501142570988545 -1 -3 -3
4804 1 0 -5.782051038200978 -5.737673464053449 -9.319225926546682 4 7 -1
2387 1 0 -1.442900468290345 -0.34999956453021674 -9.293284637631215 8 0 11
4127 1 0 -8.174865113968725 -8.400285328666453 -4.3180625337879945 -1 7 -7
4321 1 0 -7.818117264447755 -1.21019977447002 -0.43344345943025964 -4 -9 8
4658 1 0 -8.475687544764952 -7.5701098545850805 -5.577983610677468 11 0 2
3616 1 0 -5.263156794586579 -9.344829952612793 -3.767177667846134 -2 -3 -6
2068 1 0 -6.461690774423148 -8.005303650974623 -4.798594605505829 2 1 -5
1474 1 0 -6.2985389089206185 -7.472351738066192 -5.638743951030862 3 0 -3
352 1 0 -7.461077231834944 -7.119668256775869 -5.4095573702925694 5 6 0
4559 1 0 -7.440225523895888 -7.201024847481657 -6.577049401151392 -4 2 4
1142 1 0 -1.9075767311742196 -6.941604475184047 -0.6954480046251437 -2 4 -4
1527 1 0 -8.871437802768723 -8.691350016459438 -8.405342080635053 -8 -6 -1
2221 1 0 -5.441968026398954 -8.545733685629846 -4.887738997566369 -3 -9 4
3268 1 0 -2.1997267370433304 -9.298998414644373 -7.18200218228796 -4 1 -1
2780 1 0 -3.7821909179371582 -8.996761051394389 -5.305341132417127 -1 -4 0
3748 1 0 -5.287196642900198 -7.92143700874635 -5.9189037111952425 -1 -4 5
4652 1 0 -8.625586199907604 -6.598610760935092 -5.255908655493961 5 3 -2
2239 1 0 -9.136542245135507 -1.2208664286649373 -4.096139377592064 4 7 -7
5165 3 -1 -2.409395339481642 -6.9312985755935514 -5.377064500243908 0 0 -6
3175 1 0 -1.1820836985079595 -8.85871616527785 -2.3021962267497846 1 0 14
3276 1 0 -2.544334617041006 -7.976087656838286 -4.319983300061586 -7 -5 3
4630 1 0 -3.5909771047711825 -2.936655924957111 -0.41757614051097747 3 -1 0
1543 1 0 -2.565551021788006 -6.884697104424825 -4.061086626483373 0 2 -2
3514 1 0 -1.6721331153945282 -8.327835657557157 -5.023386056172004 -3 3 3
3249 1 0 -1.2645589398026011 -8.770678343008953 -7.40895547925862 1 2 8
2823 1 0 -1.6460439423674984 -7.197513342060848 -4.721590104685146 4 9 -2
862 1 0 -7.706059168887371 -8.939376201577755 -8.44907319449127 6 4 -4
1526 1 0 -7.9864083319595185 -6.416152928332197 -6.306719859519062 4 -2 0
3414 1 0 -9.361074227393466 -7.4326180034870895 -5.07823514312678 -5 -7 -2
2432 1 0 -6.094825013042065 -0.17235842454327077 -1.065699015165551 -2 -1 3
4310 1 0 -7.650684603650684 -6.088727796117733 -5.121297315817884 1 3 -4
5132 3 -1 -8.828385208283745 -6.9212499793708355 -6.480401681532014 -3 9 4
4610 1 0 -8.850710735666448 -7.431302300808213 -3.8728214709509476 -1 -2 4
1123 1 0 -5.377076755042399 -7.297566048194605 -4.850536096393398 0 -5 3
2744 1 0 -4.978656647657371 -5.770749856608229 -5.433078922511518 -3 0 2
1921 1 0 -8.11539275642032 -6.442492978949424 -4.194756301240948 11 0 2
784 1 0 -6.101755415483289 -6.688398860058683 -4.1987968722018705 -1 8 -1
4234 1 0 -5.353856859862642 -5.957614696833093 -4.331997783346601 -8 -3 -10
4423 1 0 -4.5251525582973935 -8.15649102788394 -5.050633654780855 5 0 -4
1082 1 0 -4.476079235411617 -7.1242688899072 -4.464489125615726 2 5 -1
2853 1 0 -4.540320291688852 -5.217415392897291 -3.9729158028833957 8 -1 5
2863 1 0 -2.34994941026284 -6.182520417026401 -6.543776659657563 -4 1 -1
739 1 0 -3.3486199421523954 -7.480861993576378 -4.7519315704727925 0 7 5
948 1 0 -3.3410808347736873 -6.1788045935056575 -5.008809412074744 1 0 2
2016 1 0 -0.2152685524039466 -6.160760746252306 -4.985413452762235 3 -6 -9
3152 1 0 -3.0466123113954895 -7.975096470818743 -6.574393006469933 -6 2 -1
3746 1 0 -4.06525841819346 -6.953987972729973 -5.40297488904483 -1 -5 -2
587 1 0 -3.272383131868385 -7.137612447311776 -3.3967246402118327 -6 -4 -4
778 1 0 -2.541399288601668 -6.124485489958371 -3.4410799126075338 2 2 5
4937 1 0 -9.333873500088222 -5.124461838630627 -6.704799740076691 -3 5 7
2044 1 0 -9.120592105138748 -1.1314584184102703 -5.708200351459704 -5 2 -1
2110 1 0 -1.7108122327792676 -6.181509269292986 -4.4345841723065575 0 4 -2
2915 1 0 -0.10053488478113692 -4.229779434945622 -5.909552463669088 4 2 2
1422 1 0 -1.453369214110742 -2.960719725790394 -7.125207087825469 -4 -7 -4
2582 1 0 -7.931026181316569 -2.648065158125549 -4.074292292194253 -5 -3 -7
4287 1 0 -7.544106886374588 -3.9587335227243123 -4.340297254176327 5 -4 2
4010 1 0 -6.949214817095715 -4.796549522270447 -4.108271848856806 6 3 2
3843 1 0 -0.5840187324183237 -3.5608280966272305 -8.78711607804484 -5 -4 -2
818 1 0 -6.32743162423624 -4.332892927237874 -3.384835039312337 2 -3 5
4544 1 0 -6.887272901169297 -5.516880845425925 -5.6441301531035535 -2 2 6
4384 1 0 -6.907497923608268 -3.559237117164958 -3.5099176044126477 5 6 12
3284 1 0 -5.219691186541734 -3.2829992921271716 -4.63634830816166 0 5 3
1143 1 0 -5.528222973815129 -4.878180276335101 -3.8973849727218886 -8 1 4
2168 1 0 -6.257577330977842 -5.542266766456382 -3.573797739458443 1 -4 -1
5075 2 1 -3.3678180066051437 -4.629606532690138 -3.6914067163482107 -2 6 1
694 1 0 -4.8186596241763535 -5.223777188677981 -6.356808306017285 4 6 -6
1541 1 0 -3.879930963003039 -5.345805937424007 -5.399503582270904 -5 4 -2
100 1 0 -3.35046440254398 -6.910005154844388 -6.19748779965245 -3 0 0
486 1 0 -4.4748417997186625 -3.8043875436959356 -5.441453293684127 0 4 5
959 1 0 -3.515709256653208 -4.396313544505916 -5.7312858471164425 1 0 3
4057 1 0 -2.2484474557537757 -4.471414800529955 -6.019966511341082 5 -2 -1
3906 1 0 -2.151385260169895 -5.882531950058195 -5.3200448012023935 3 -2 -10
2372 1 0 -1.9123402790633834 -4.864964765091983 -5.194192476364722 -13 -3 -2
4687 1 0 -3.076950461041105 -4.907251769744665 -4.805654641928815 2 4 -2
3849 1 0 -0.9368989209920269 -4.422609774631771 -5.284153951292249 1 0 -8
1020 1 0 -0.9171167487825667 -5.462004026748625 -5.2009551517384605 -3 -2 1
3352 1 0 -9.008696774687 -8.24806510038006 -0.9091155955857015 5 1 -3
3234 1 0 -1.7948886117475684 -3.5027493087903894 -5.319116375891321 1 2 1
3387 1 0 -9.211736566254624 -6.560842629386338 -4.0944080054238965 -4 0 3
1583 1 0 -3.348998049382921 -9.421844229652244 -9.258284996684257 3 3 5
3444 1 0 -0.43380628134251786 -5.971907535700255 -6.334848055806557 -4 2 2
2880 1 0 -8.478254374672742 -3.607421920180104 -4.0315261465295125 6 -7 0
3270 1 0 -6.941042598763359 -2.154597375230198 -4.162610927612398 2 -7 -5
1182 1 0 -6.026541035956418 -2.5018395096033643 -4.811951775072543 -2 -1 -3
1231 1 0 -7.037021570854439 -3.137441347314195 -4.523641053515151 9 -1 4
1131 1 0 -8.086583271590962 -1.8516096931099986 -3.362961095872982 -3 1 -2
929 1 0 -8.588173064340806 -4.384533893303692 -4.699075569769266 0 12 -3
4166 1 0 -5.732901972693014 -2.163393549144291 -5.7501539163589594 -3 -4 7
4150 1 0 -6.412317765245456 -3.9657021702559936 -4.384980070831127 -2 4 -8
4612 1 0 -5.53394684197715 -4.752396898391903 -5.039627800504087 7 2 10
4226 1 0 -5.968081269153532 -2.109595011729694 -6.826602338931463 -3 0 3
2390 1 0 -3.850460981725008 -3.0365402929108063 -5.666546834715626 6 3 11
612 1 0 -4.561650621773078 -2.6135614201791837 -5.07163597009085 0 -5 2
4491 1 0 -5.200288150862615 -2.4854638438253245 -3.966775857847325 -3 -3 6
4945 1 0 -3.2227932465276607 -2.620648265871628 -4.700318705136116 5 4 5
2276 1 0 -5.219907329264677 -3.198340566545496 -5.945398318512533 -5 1 3
1777 1 0 -4.258345480021672 -2.0527991403707864 -3.8125273999682836 -2 3 -6
3124 1 0 -3.7266592502160174 -1.8644285811136738 -5.295635227580412 -3 -3 -6
4876 1 0 -2.409641733454473 -4.015989936661676 -4.685080575040987 -5 5 3
3299 1 0 -2.143712429956569 -2.698764350335172 -4.791634783582628 -2 1 -7
137 1 0 -2.898502052862523 -3.467952871072968 -5.35045164768715 -7 4 -7
1530 1 0 -2.600407783999919 -1.900198349296197 -5.166210529001179 2 -1 0
1524 1 0 -3.097843731826 -1.7663862177240182 -4.200287532239883 -3 -2 9
4595 1 0 -1.5270942362130961 -3.5252609754908777 -4.165165285146878 1 -7 -4
4694 1 0 -1.8479616727409853 -2.114096194275419 -4.009316291422796 -3 -4 -4
5157 3 -1 -1.050117560051902 -2.511789033650637 -4.504468785350482 1 -2 1
1755 1 0 -1.3881187295240345 -4.760008245498074 -4.2372774275324705 -2 4 -12
3098 1 0 -7.5780073581716865 -1.7221615002628736 -9.001581636048762 -1 3 7
2344 1 0 -1.6218423462039153 -8.515997204167533 -0.10952348939968637 -5 -4 9
1345 1 0 -8.490575500865077 -2.209534390619689 -5.434210906975106 10 3 5
3636 1 0 -7.790119655288793 -1.4812659078884671 -4.376105096748428 4 -6 -2
4025 1 0 -5.0258203896756495 -3.8466553821137124 -8.51065272229891 4 -4 0
2939 1 0 -0.3128581254759606 -7.341961400912226 -2.9169181977233984 8 1 -4
2832 1 0 -8.317641847097267 -6.488056704572347 -0.27136642206147066 -3 4 -9
1579 1 0 -0.43313846323012584 -3.0753438671203703 -7.56612409627322 -6 0 -2
66 1 0 -7.042479456763188 -2.07861710210954 -2.9524704079541326 -6 -3 -1
2428 1 0 -6.220485107879575 -0.44047128126436874 -4.815391393894058 -2 2 1
4248 1 0 -7.3202450747170005 -0.9161826455548496 -3.7200662314986053 -5 -4 -4
49 1 0 -5.562989143421024 -1.1185522758212727 -5.911559167659076 -4 -3 5
400 1 0 -4.100193526825615 -0.9764985939399242 -4.604572568947135 0 -2 -1
869 1 0 -5.20460262001729 -1.6813442753291978 -4.970195915238559 -2 7 1
1286 1 0 -9.509651003400467 -8.855980763279513 -6.5872339521760495 9 1 -11
308 1 0 -5.526904488173752 -0.2909827701716985 -4.033667160384581 4 6 1
12 1 0 -2.4475826806792362 -1.8519818693142351 -1.0471221112426257 -5 11 0
4682 1 0 -1.6292822609530644 -1.7145089958346977 -5.137622479461651 -3 5 3
2746 1 0 -5.067378842818883 -0.4867881093804556 -5.102558945833741 0 -6 -3
3288 1 0 -2.2180569375491217 -1.236713941526265 -4.377181716182698 2 -3 6
2431 1 0 -3.137336544416648 -0.9928205759667872 -4.927853795164128 2 0 -1
5088 2 1 -1.3293641713049347 -0.7718733343286068 -4.698320332784008 0 6 8
4944 1 0 -1.5794325289051105 -0.19846278535858808 -3.8443722719795 -5 0 -1
2517 1 0 -2.2462151109669746 -0.9123272571871262 -5.91690133359546 -1 -3 3
1448 1 0 -5.750125485223276 -3.457069980416793 -9.083547101650971 -1 -1 0